<VTKFile type="UnstructuredGrid" version="0.1" byte_order="LittleEndian">
  <UnstructuredGrid>
    <Piece NumberOfPoints="962" NumberOfCells="3407">
      <PointData Normals="Normals">
        <DataArray type="Float32" Name="Normals" NumberOfComponents="3" format="ascii" RangeMin="0.9999999633" RangeMax="1.0000000425">
          0 0 1 0 0 -1
          0.10116832703 0 0.99486935139 0.20129851997 0 0.97952991724
          0.29936313629 0 0.95413923264 0.39435586333 0 0.91895782948
          0.48530197144 0 0.87434661388 0.57126820087 0 0.82076340914
          0.65137249231 0 0.75875812769 0.72479277849 0 0.68896692991
          0.79077577591 0 0.61210596561 0.84864425659 0 0.52896398306
          0.89780455828 0 0.44039413333 0.93775212765 0 0.34730520844
          0.96807712317 0 0.25065249205 0.98846834898 0 0.15142774582
          0.99871653318 0 0.050649125129 0.99871653318 0 -0.050649214536
          0.98846828938 0 -0.15142782032 0.96807712317 0 -0.25065258145
          0.93775212765 0 -0.34730529785 0.89780449867 0 -0.44039419293
          0.84864419699 0 -0.52896404266 0.7907757163 0 -0.61210602522
          0.72479271889 0 -0.68896698952 0.65137243271 0 -0.75875818729
          0.57126814127 0 -0.82076346874 0.48530191183 0 -0.87434667349
          0.39435577393 0 -0.91895782948 0.29936304688 0 -0.95413929224
          0.20129844546 0 -0.97952997684 0.10116823763 0 -0.99486935139
          0.099224403501 0.019736962393 0.99486935139 0.19743062556 0.039271395653 0.97952991724
          0.29361096025 0.058402851224 0.95413923264 0.38677841425 0.076935015619 0.91895782948
          0.47597703338 0.094677723944 0.87434661388 0.5602914691 0.11144890636 0.82076340914
          0.63885653019 0.12707647681 0.75875812769 0.71086609364 0.141400069 0.68896692991
          0.77558124065 0.15427270532 0.61210596561 0.83233779669 0.16556228697 0.52896398306
          0.88055348396 0.17515298724 0.44039413333 0.91973352432 0.18294636905 0.34730520844
          0.94947582483 0.18886248767 0.25065249205 0.96947520971 0.19284060597 0.15142774582
          0.97952646017 0.19483992457 0.050649125129 0.97952646017 0.19483992457 -0.050649214536
          0.96947515011 0.19284060597 -0.15142782032 0.94947576523 0.18886247277 -0.25065258145
          0.91973346472 0.18294636905 -0.34730529785 0.88055342436 0.17515297234 -0.44039419293
          0.83233773708 0.16556228697 -0.52896404266 0.77558118105 0.15427269042 -0.61210602522
          0.71086603403 0.1414000541 -0.68896698952 0.63885647058 0.12707646191 -0.75875818729
          0.56029140949 0.11144889146 -0.82076346874 0.47597694397 0.094677709043 -0.87434667349
          0.38677835464 0.076935000718 -0.91895782948 0.29361087084 0.058402836323 -0.95413929224
          0.19743055105 0.039271377027 -0.97952997684 0.099224321544 0.019736943766 -0.99486935139
          0.093467347324 0.038715444505 0.99486935139 0.18597558141 0.077033609152 0.97952991724
          0.27657547593 0.1145613119 0.95413923264 0.3643373251 0.15091346204 0.91895782948
          0.44836056232 0.18571703136 0.87434661388 0.52778303623 0.21861489117 0.82076340914
          0.60178971291 0.24926947057 0.75875812769 0.66962122917 0.27736619115 0.68896692991
          0.73058152199 0.30261677504 0.61210596561 0.78404504061 0.32476210594 0.52896398306
          0.82946324348 0.34357494116 0.44039413333 0.8663700223 0.35886222124 0.34730520844
          0.89438664913 0.37046709657 0.25065249205 0.91322565079 0.37827047706 0.15142774582
          0.9226937294 0.38219228387 0.050649125129 0.9226937294 0.38219228387 -0.050649214536
          0.91322565079 0.37827044725 -0.15142782032 0.89438664913 0.37046706676 -0.25065258145
          0.86636996269 0.35886222124 -0.34730529785 0.82946318388 0.34357491136 -0.44039419293
          0.78404504061 0.32476210594 -0.52896404266 0.73058146238 0.30261677504 -0.61210602522
          0.66962116957 0.27736619115 -0.68896698952 0.6017896533 0.24926944077 -0.75875818729
          0.52778297663 0.21861486137 -0.82076346874 0.44836050272 0.18571700156 -0.87434667349
          0.36433723569 0.15091343224 -0.91895782948 0.27657538652 0.1145612821 -0.95413929224
          0.1859755069 0.07703357935 -0.97952997684 0.093467265368 0.038715410978 -0.99486935139
          0.084118388593 0.056206110865 0.99486935139 0.16737361252 0.11183547229 0.97952991724
          0.24891135097 0.1663172543 0.95413923264 0.32789492607 0.21909238398 0.91895782948
          0.40351384878 0.26961934566 0.87434661388 0.47499215603 0.31737962365 0.82076340914
          0.54159641266 0.36188319325 0.75875812769 0.60264319181 0.40267330408 0.68896692991
          0.65750598907 0.43933147192 0.61210596561 0.70562189817 0.47148150206 0.52896398306
          0.74649721384 0.49879348278 0.44039413333 0.77971237898 0.52098721266 0.34730520844
          0.80492669344 0.53783482313 0.25065249205 0.82188135386 0.54916357994 0.15142774582
          0.83040243387 0.55485719442 0.050649125129 0.83040243387 0.55485719442 -0.050649214536
          0.82188135386 0.54916357994 -0.15142782032 0.80492669344 0.53783482313 -0.25065258145
          0.77971237898 0.52098715305 -0.34730529785 0.74649715424 0.49879348278 -0.44039419293
          0.70562189817 0.47148147225 -0.52896404266 0.65750592947 0.43933144212 -0.61210602522
          0.60264313221 0.40267327428 -0.68896698952 0.54159635305 0.36188313365 -0.75875818729
          0.47499209642 0.31737959385 -0.82076346874 0.40351378918 0.26961928606 -0.87434667349
          0.32789483666 0.21909233928 -0.91895782948 0.24891127646 0.1663172096 -0.95413929224
          0.16737353802 0.11183542758 -0.97952997684 0.084118314087 0.056206062436 -0.99486935139
          0.071536809206 0.071536809206 0.99486935139 0.14233954251 0.14233955741 0.97952991724
          0.21168169379 0.21168170869 0.95413923264 0.27885168791 0.27885171771 0.91895782948
          0.34316030145 0.34316033125 0.87434661388 0.40394762158 0.40394765139 0.82076340914
          0.46058988571 0.46058991551 0.75875812769 0.51250588894 0.51250588894 0.68896692991
          0.55916285515 0.55916291475 0.61210596561 0.60008209944 0.60008215904 0.52896398306
          0.63484364748 0.63484370708 0.44039413333 0.66309088469 0.66309094429 0.34730520844
          0.68453389406 0.68453389406 0.25065249205 0.69895261526 0.69895267487 0.15142774582
          0.70619922876 0.70619922876 0.050649125129 0.70619916916 0.70619922876 -0.050649214536
          0.69895261526 0.69895267487 -0.15142782032 0.68453389406 0.68453389406 -0.25065258145
          0.66309088469 0.66309088469 -0.34730529785 0.63484364748 0.63484364748 -0.44039419293
          0.60008209944 0.60008209944 -0.52896404266 0.55916285515 0.55916285515 -0.61210602522
          0.51250582933 0.51250588894 -0.68896698952 0.46058985591 0.46058988571 -0.75875818729
          0.40394759178 0.40394759178 -0.82076346874 0.34316024184 0.34316027164 -0.87434667349
          0.27885165811 0.27885165811 -0.91895782948 0.21168163419 0.21168164909 -0.95413929224
          0.1423394829 0.1423394978 -0.97952997684 0.071536742151 0.071536749601 -0.99486935139
          0.05620610714 0.084118388593 0.99486935139 0.11183546484 0.16737361252 0.97952991724
          0.1663172394 0.24891135097 0.95413923264 0.21909236908 0.32789492607 0.91895782948
          0.26961931586 0.40351384878 0.87434661388 0.31737962365 0.47499218583 0.82076340914
          0.36188316345 0.54159647226 0.75875812769 0.40267330408 0.60264319181 0.68896692991
          0.43933144212 0.65750604868 0.61210596561 0.47148147225 0.70562195778 0.52896398306
          0.49879345298 0.74649721384 0.44039413333 0.52098715305 0.77971243858 0.34730520844
          0.53783482313 0.80492675304 0.25065249205 0.54916357994 0.82188141346 0.15142774582
          0.55485713482 0.83040243387 0.050649125129 0.55485713482 0.83040243387 -0.050649214536
          0.54916357994 0.82188135386 -0.15142782032 0.53783482313 0.80492669344 -0.25065258145
          0.52098715305 0.77971237898 -0.34730529785 0.49879345298 0.74649721384 -0.44039419293
          0.47148144245 0.70562189817 -0.52896404266 0.43933141232 0.65750598907 -0.61210602522
          0.40267324448 0.60264313221 -0.68896698952 0.36188310385 0.54159641266 -0.75875818729
          0.31737956405 0.47499212623 -0.82076346874 0.26961928606 0.40351378918 -0.87434667349
          0.21909232438 0.32789486647 -0.91895782948 0.1663171947 0.24891127646 -0.95413929224
          0.11183542013 0.16737353802 -0.97952997684 0.056206058711 0.084118314087 -0.99486935139
          0.038715437055 0.093467347324 0.99486935139 0.077033601701 0.18597559631 0.97952991724
          0.11456130445 0.27657547593 0.95413923264 0.15091344714 0.3643373251 0.91895782948
          0.18571701646 0.44836056232 0.87434661388 0.21861487627 0.52778303623 0.82076340914
          0.24926944077 0.60178971291 0.75875812769 0.27736616135 0.66962122917 0.68896692991
          0.30261674523 0.73058152199 0.61210596561 0.32476207614 0.78404510021 0.52896398306
          0.34357491136 0.82946324348 0.44039413333 0.35886219144 0.8663700223 0.34730520844
          0.37046703696 0.89438664913 0.25065249205 0.37827041745 0.91322565079 0.15142774582
          0.38219222426 0.9226937294 0.050649125129 0.38219222426 0.9226937294 -0.050649214536
          0.37827041745 0.91322565079 -0.15142782032 0.37046703696 0.89438664913 -0.25065258145
          0.35886216164 0.8663700223 -0.34730529785 0.34357488155 0.82946324348 -0.44039419293
          0.32476204634 0.78404504061 -0.52896404266 0.30261674523 0.73058152199 -0.61210602522
          0.27736616135 0.66962116957 -0.68896698952 0.24926941097 0.6017896533 -0.75875818729
          0.21861484647 0.52778297663 -0.82076346874 0.18571698666 0.44836050272 -0.87434667349
          0.15091341734 0.36433723569 -0.91895782948 0.1145612672 0.27657538652 -0.95413929224
          0.077033571899 0.1859755069 -0.97952997684 0.038715407252 0.093467265368 -0.99486935139
          0.019736956805 0.099224403501 0.99486935139 0.039271388203 0.19743062556 0.97952991724
          0.058402840048 0.29361096025 0.95413923264 0.076935000718 0.38677844405 0.91895782948
          0.094677701592 0.47597703338 0.87434661388 0.11144888401 0.5602914691 0.82076340914
          0.12707644701 0.63885658979 0.75875812769 0.1414000392 0.71086609364 0.68896692991
          0.15427266061 0.77558124065 0.61210596561 0.16556225717 0.83233779669 0.52896398306
          0.17515294254 0.88055348396 0.44039413333 0.18294633925 0.91973352432 0.34730520844
          0.18886244297 0.94947582483 0.25065249205 0.19284056127 0.96947520971 0.15142774582
          0.19483989477 0.97952646017 0.050649125129 0.19483987987 0.97952646017 -0.050649214536
          0.19284056127 0.96947520971 -0.15142782032 0.18886244297 0.94947576523 -0.25065258145
          0.18294632435 0.91973346472 -0.34730529785 0.17515294254 0.88055348396 -0.44039419293
          0.16556224227 0.83233779669 -0.52896404266 0.15427266061 0.77558118105 -0.61210602522
          0.14140002429 0.71086603403 -0.68896698952 0.12707643211 0.63885647058 -0.75875818729
          0.11144886911 0.56029140949 -0.82076346874 0.094677686691 0.47597697377 -0.87434667349
          0.076934985816 0.38677835464 -0.91895782948 0.058402821422 0.29361087084 -0.95413929224
          0.039271369576 0.19743055105 -0.97952997684 0.019736940041 0.099224321544 -0.99486935139
          -4.4222079332e-09 0.10116832703 0.99486935139 -8.7990379427e-09 0.20129851997 0.97952991724
          -1.3085578843e-08 0.29936313629 0.95413923264 -1.7237843153e-08 0.39435586333 0.91895782948
          -2.1213223178e-08 0.48530197144 0.87434661388 -2.4970928436e-08 0.57126820087 0.82076340914
          -2.8472397773e-08 0.65137249231 0.75875812769 -3.1681700818e-08 0.72479277849 0.68896692991
          -3.456590747e-08 0.79077577591 0.61210596561 -3.7095421845e-08 0.84864425659 0.52896398306
          -3.9244284267e-08 0.89780455828 0.44039413333 -4.0990450145e-08 0.93775212765 0.34730520844
          -4.2315996041e-08 0.96807712317 0.25065249205 -4.3207325717e-08 0.98846834898 0.15142774582
          -4.3655287385e-08 0.99871653318 0.050649125129 -4.3655287385e-08 0.99871653318 -0.050649214536
          -4.3207325717e-08 0.98846828938 -0.15142782032 -4.2315996041e-08 0.96807712317 -0.25065258145
          -4.0990446593e-08 0.93775212765 -0.34730529785 -3.9244284267e-08 0.89780449867 -0.44039419293
          -3.7095418293e-08 0.84864419699 -0.52896404266 -3.4565903917e-08 0.7907757163 -0.61210602522
          -3.1681697266e-08 0.72479271889 -0.68896698952 -2.847239422e-08 0.65137243271 -0.75875818729
          -2.4970924883e-08 0.57126814127 -0.82076346874 -2.1213221402e-08 0.48530191183 -0.87434667349
          -1.72378396e-08 0.39435577393 -0.91895782948 -1.308557529e-08 0.29936304688 -0.95413929224
          -8.79903439e-09 0.20129844546 -0.97952997684 -4.4222043805e-09 0.10116823763 -0.99486935139
          -0.019736966118 0.099224403501 0.99486935139 -0.039271403104 0.19743062556 0.97952991724
          -0.0584028624 0.29361096025 0.95413923264 -0.07693503052 0.38677841425 0.91895782948
          -0.094677738845 0.47597703338 0.87434661388 -0.11144892871 0.5602914691 0.82076340914
          -0.12707650661 0.63885653019 0.75875812769 -0.1414000988 0.71086609364 0.68896692991
          -0.15427273512 0.77558118105 0.61210596561 -0.16556233168 0.83233779669 0.52896398306
          -0.17515301704 0.88055348396 0.44039413333 -0.18294641376 0.91973346472 0.34730520844
          -0.18886253238 0.94947576523 0.25065249205 -0.19284065068 0.96947515011 0.15142774582
          -0.19483996928 0.97952646017 0.050649125129 -0.19483996928 0.97952646017 -0.050649214536
          -0.19284065068 0.96947515011 -0.15142782032 -0.18886251748 0.94947576523 -0.25065258145
          -0.18294641376 0.91973346472 -0.34730529785 -0.17515301704 0.88055342436 -0.44039419293
          -0.16556231678 0.83233773708 -0.52896404266 -0.15427272022 0.77558118105 -0.61210602522
          -0.1414000839 0.71086603403 -0.68896698952 -0.12707649171 0.63885647058 -0.75875818729
          -0.11144891381 0.56029140949 -0.82076346874 -0.094677723944 0.47597694397 -0.87434667349
          -0.076935015619 0.38677835464 -0.91895782948 -0.058402847499 0.29361087084 -0.95413929224
          -0.039271388203 0.19743055105 -0.97952997684 -0.019736949354 0.099224314094 -0.99486935139
          -0.038715448231 0.093467339873 0.99486935139 -0.077033624053 0.18597558141 0.97952991724
          -0.1145613268 0.27657547593 0.95413923264 -0.15091347694 0.36433729529 0.91895782948
          -0.18571704626 0.44836056232 0.87434661388 -0.21861492097 0.52778303623 0.82076340914
          -0.24926950037 0.60178971291 0.75875812769 -0.27736622095 0.66962122917 0.68896692991
          -0.30261680484 0.73058152199 0.61210596561 -0.32476213574 0.78404504061 0.52896398306
          -0.34357497096 0.82946324348 0.44039413333 -0.35886225104 0.8663700223 0.34730520844
          -0.37046712637 0.89438664913 0.25065249205 -0.37827050686 0.91322565079 0.15142774582
          -0.38219231367 0.9226937294 0.050649125129 -0.38219231367 0.9226937294 -0.050649214536
          -0.37827050686 0.91322565079 -0.15142782032 -0.37046712637 0.89438658953 -0.25065258145
          -0.35886225104 0.86636996269 -0.34730529785 -0.34357497096 0.82946318388 -0.44039419293
          -0.32476213574 0.78404504061 -0.52896404266 -0.30261680484 0.73058146238 -0.61210602522
          -0.27736622095 0.66962116957 -0.68896698952 -0.24926947057 0.6017896533 -0.75875818729
          -0.21861489117 0.52778291702 -0.82076346874 -0.18571701646 0.44836047292 -0.87434667349
          -0.15091344714 0.36433723569 -0.91895782948 -0.114561297 0.27657538652 -0.95413929224
          -0.0770335868 0.1859755069 -0.97952997684 -0.038715414703 0.093467265368 -0.99486935139
          -0.05620611459 0.084118381143 0.99486935139 -0.11183547974 0.16737359762 0.97952991724
          -0.1663172543 0.24891133606 0.95413923264 -0.21909239888 0.32789489627 0.91895782948
          -0.26961934566 0.40351381898 0.87434661388 -0.31737965345 0.47499215603 0.82076340914
          -0.36188319325 0.54159641266 0.75875812769 -0.40267333388 0.60264319181 0.68896692991
          -0.43933150172 0.65750598907 0.61210596561 -0.47148153186 0.70562189817 0.52896398306
          -0.49879354239 0.74649715424 0.44039413333 -0.52098721266 0.77971237898 0.34730520844
          -0.53783488274 0.80492669344 0.25065249205 -0.54916363955 0.82188135386 0.15142774582
          -0.55485719442 0.83040237427 0.050649125129 -0.55485719442 0.83040237427 -0.050649214536
          -0.54916363955 0.82188135386 -0.15142782032 -0.53783488274 0.80492669344 -0.25065258145
          -0.52098721266 0.77971237898 -0.34730529785 -0.49879351258 0.74649715424 -0.44039419293
          -0.47148150206 0.70562183857 -0.52896404266 -0.43933147192 0.65750592947 -0.61210602522
          -0.40267330408 0.60264313221 -0.68896698952 -0.36188316345 0.54159635305 -0.75875818729
          -0.31737962365 0.47499209642 -0.82076346874 -0.26961931586 0.40351375937 -0.87434667349
          -0.21909235418 0.32789483666 -0.91895782948 -0.1663172096 0.24891126156 -0.95413929224
          -0.11183542758 0.16737352312 -0.97952997684 -0.056206066161 0.084118314087 -0.99486935139
          -0.071536816657 0.071536801755 0.99486935139 -0.14233955741 0.14233954251 0.97952991724
          -0.21168170869 0.21168167889 0.95413923264 -0.27885171771 0.27885168791 0.91895782948
          -0.34316033125 0.34316030145 0.87434661388 -0.40394765139 0.40394762158 0.82076340914
          -0.46058994532 0.46058988571 0.75875812769 -0.51250594854 0.51250588894 0.68896692991
          -0.55916291475 0.55916285515 0.61210596561 -0.60008215904 0.60008209944 0.52896398306
          -0.63484370708 0.63484364748 0.44039413333 -0.66309094429 0.66309088469 0.34730520844
          -0.68453395367 0.68453383446 0.25065249205 -0.69895273447 0.69895261526 0.15142774582
          -0.70619928837 0.70619916916 0.050649125129 -0.70619928837 0.70619916916 -0.050649214536
          -0.69895267487 0.69895261526 -0.15142782032 -0.68453395367 0.68453383446 -0.25065258145
          -0.66309094429 0.66309082508 -0.34730529785 -0.63484370708 0.63484364748 -0.44039419293
          -0.60008209944 0.60008203983 -0.52896404266 -0.55916291475 0.55916279554 -0.61210602522
          -0.51250588894 0.51250582933 -0.68896698952 -0.46058988571 0.46058982611 -0.75875818729
          -0.40394762158 0.40394756198 -0.82076346874 -0.34316027164 0.34316024184 -0.87434667349
          -0.27885165811 0.2788516283 -0.91895782948 -0.21168164909 0.21168163419 -0.95413929224
          -0.1423394978 0.1423394829 -0.97952997684 -0.071536749601 0.071536742151 -0.99486935139
          -0.084118388593 0.056206103414 0.99486935139 -0.16737361252 0.11183545738 0.97952991724
          -0.24891135097 0.1663172245 0.95413923264 -0.32789492607 0.21909235418 0.91895782948
          -0.40351387858 0.26961931586 0.87434661388 -0.47499218583 0.31737959385 0.82076340914
          -0.54159647226 0.36188313365 0.75875812769 -0.60264319181 0.40267327428 0.68896692991
          -0.65750604868 0.43933141232 0.61210596561 -0.70562195778 0.47148144245 0.52896398306
          -0.74649721384 0.49879342318 0.44039413333 -0.77971243858 0.52098709345 0.34730520844
          -0.80492675304 0.53783476353 0.25065249205 -0.82188141346 0.54916352034 0.15142774582
          -0.83040249348 0.55485707521 0.050649125129 -0.83040249348 0.55485707521 -0.050649214536
          -0.82188141346 0.54916352034 -0.15142782032 -0.80492675304 0.53783476353 -0.25065258145
          -0.77971243858 0.52098709345 -0.34730529785 -0.74649721384 0.49879342318 -0.44039419293
          -0.70562189817 0.47148141265 -0.52896404266 -0.65750598907 0.43933138251 -0.61210602522
          -0.60264319181 0.40267324448 -0.68896698952 -0.54159641266 0.36188310385 -0.75875818729
          -0.47499212623 0.31737956405 -0.82076346874 -0.40351378918 0.26961925626 -0.87434667349
          -0.32789486647 0.21909230947 -0.91895782948 -0.24891129136 0.1663171798 -0.95413929224
          -0.16737353802 0.11183541268 -0.97952997684 -0.084118321538 0.056206054986 -0.99486935139
          -0.093467347324 0.038715433329 0.99486935139 -0.18597559631 0.077033594251 0.97952991724
          -0.27657547593 0.11456128955 0.95413923264 -0.3643373251 0.15091343224 0.91895782948
          -0.44836056232 0.18571698666 0.87434661388 -0.52778303623 0.21861484647 0.82076340914
          -0.60178971291 0.24926941097 0.75875812769 -0.66962122917 0.27736613154 0.68896692991
          -0.73058158159 0.30261671543 0.61210596561 -0.78404510021 0.32476204634 0.52896398306
          -0.82946330309 0.34357485175 0.44039413333 -0.8663700223 0.35886213183 0.34730520844
          -0.89438664913 0.37046700716 0.25065249205 -0.91322571039 0.37827038765 0.15142774582
          -0.92269378901 0.38219219446 0.050649125129 -0.92269378901 0.38219219446 -0.050649214536
          -0.91322565079 0.37827038765 -0.15142782032 -0.89438664913 0.37046700716 -0.25065258145
          -0.8663700223 0.35886213183 -0.34730529785 -0.82946324348 0.34357485175 -0.44039419293
          -0.78404504061 0.32476201653 -0.52896404266 -0.73058152199 0.30261671543 -0.61210602522
          -0.66962122917 0.27736613154 -0.68896698952 -0.6017896533 0.24926939607 -0.75875818729
          -0.52778297663 0.21861481667 -0.82076346874 -0.44836050272 0.18571695685 -0.87434667349
          -0.36433723569 0.15091340244 -0.91895782948 -0.27657538652 0.11456125975 -0.95413929224
          -0.1859755218 0.077033564448 -0.97952997684 -0.093467265368 0.038715399802 -0.99486935139
          -0.099224403501 0.01973695308 0.99486935139 -0.19743064046 0.039271377027 0.97952991724
          -0.29361096025 0.058402825147 0.95413923264 -0.38677844405 0.076934978366 0.91895782948
          -0.47597703338 0.094677679241 0.87434661388 -0.5602914691 0.11144885421 0.82076340914
          -0.63885658979 0.12707641721 0.75875812769 -0.71086615324 0.14140000939 0.68896692991
          -0.77558124065 0.15427263081 0.61210596561 -0.83233779669 0.16556221247 0.52896398306
          -0.88055348396 0.17515291274 0.44039413333 -0.91973352432 0.18294629455 0.34730520844
          -0.94947582483 0.18886239827 0.25065249205 -0.96947520971 0.19284053147 0.15142774582
          -0.97952646017 0.19483985007 0.050649125129 -0.97952646017 0.19483985007 -0.050649214536
          -0.96947520971 0.19284051657 -0.15142782032 -0.94947576523 0.18886239827 -0.25065258145
          -0.91973346472 0.18294627964 -0.34730529785 -0.88055348396 0.17515289783 -0.44039419293
          -0.83233779669 0.16556221247 -0.52896404266 -0.77558118105 0.15427261591 -0.61210602522
          -0.71086609364 0.14139999449 -0.68896698952 -0.63885653019 0.12707640231 -0.75875818729
          -0.56029140949 0.11144883931 -0.82076346874 -0.47597697377 0.09467766434 -0.87434667349
          -0.38677835464 0.076934963465 -0.91895782948 -0.29361087084 0.058402810246 -0.95413929224
          -0.19743055105 0.039271362126 -0.97952997684 -0.099224321544 0.019736936316 -0.99486935139
          -0.10116832703 -8.8444158663e-09 0.99486935139 -0.20129851997 -1.7598075885e-08 0.97952991724
          -0.29936313629 -2.6171157685e-08 0.95413923264 -0.39435586333 -3.4475686306e-08 0.91895782948
          -0.48530197144 -4.2426446356e-08 0.87434661388 -0.57126820087 -4.9941856872e-08 0.82076340914
          -0.65137249231 -5.6944795546e-08 0.75875812769 -0.72479277849 -6.3363401637e-08 0.68896692991
          -0.79077577591 -6.9131814939e-08 0.61210596561 -0.84864425659 -7.4190843691e-08 0.52896398306
          -0.89780455828 -7.8488568533e-08 0.44039413333 -0.93775212765 -8.1980900291e-08 0.34730520844
          -0.96807712317 -8.4631992081e-08 0.25065249205 -0.98846834898 -8.6414651435e-08 0.15142774582
          -0.99871653318 -8.731057477e-08 0.050649125129 -0.99871653318 -8.731057477e-08 -0.050649214536
          -0.98846828938 -8.6414651435e-08 -0.15142782032 -0.96807712317 -8.4631992081e-08 -0.25065258145
          -0.93775212765 -8.1980893185e-08 -0.34730529785 -0.89780449867 -7.8488568533e-08 -0.44039419293
          -0.84864419699 -7.4190836585e-08 -0.52896404266 -0.7907757163 -6.9131807834e-08 -0.61210602522
          -0.72479271889 -6.3363394531e-08 -0.68896698952 -0.65137243271 -5.694478844e-08 -0.75875818729
          -0.57126814127 -4.9941849767e-08 -0.82076346874 -0.48530191183 -4.2426442803e-08 -0.87434667349
          -0.39435577393 -3.44756792e-08 -0.91895782948 -0.29936304688 -2.617115058e-08 -0.95413929224
          -0.20129844546 -1.759806878e-08 -0.97952997684 -0.10116823763 -8.8444087609e-09 -0.99486935139
          -0.099224403501 -0.019736969844 0.99486935139 -0.19743062556 -0.03927141428 0.97952991724
          -0.29361096025 -0.058402877301 0.95413923264 -0.38677841425 -0.076935045421 0.91895782948
          -0.47597703338 -0.094677761197 0.87434661388 -0.5602914691 -0.11144895852 0.82076340914
          -0.63885653019 -0.12707653642 0.75875812769 -0.71086609364 -0.1414001286 0.68896692991
          -0.77558118105 -0.15427276492 0.61210596561 -0.83233779669 -0.16556236148 0.52896398306
          -0.88055348396 -0.17515306175 0.44039413333 -0.91973346472 -0.18294645846 0.34730520844
          -0.94947576523 -0.18886256218 0.25065249205 -0.96947515011 -0.19284069538 0.15142774582
          -0.97952646017 -0.19484001398 0.050649125129 -0.97952640057 -0.19484001398 -0.050649214536
          -0.96947515011 -0.19284069538 -0.15142782032 -0.94947576523 -0.18886256218 -0.25065258145
          -0.91973346472 -0.18294644356 -0.34730529785 -0.88055342436 -0.17515304685 -0.44039419293
          -0.83233773708 -0.16556234658 -0.52896404266 -0.77558118105 -0.15427276492 -0.61210602522
          -0.71086603403 -0.1414001137 -0.68896698952 -0.63885647058 -0.12707652152 -0.75875818729
          -0.56029140949 -0.11144894361 -0.82076346874 -0.47597694397 -0.094677746296 -0.87434667349
          -0.38677835464 -0.07693503052 -0.91895782948 -0.29361087084 -0.0584028624 -0.95413929224
          -0.19743053615 -0.039271395653 -0.97952997684 -0.099224314094 -0.01973695308 -0.99486935139
          -0.093467339873 -0.038715451956 0.99486935139 -0.18597558141 -0.077033631504 0.97952991724
          -0.27657544613 -0.11456133425 0.95413923264 -0.36433729529 -0.15091349185 0.91895782948
          -0.44836053252 -0.18571707606 0.87434661388 -0.52778297663 -0.21861493587 0.82076340914
          -0.60178971291 -0.24926951528 0.75875812769 -0.66962122917 -0.27736625075 0.68896692991
          -0.73058152199 -0.30261686444 0.61210596561 -0.78404504061 -0.32476216555 0.52896398306
          -0.82946324348 -0.34357500076 0.44039413333 -0.86636996269 -0.35886228085 0.34730520844
          -0.89438658953 -0.37046715617 0.25065249205 -0.91322565079 -0.37827053666 0.15142774582
          -0.9226937294 -0.38219234347 0.050649125129 -0.9226937294 -0.38219234347 -0.050649214536
          -0.91322559118 -0.37827053666 -0.15142782032 -0.89438658953 -0.37046715617 -0.25065258145
          -0.86636996269 -0.35886228085 -0.34730529785 -0.82946318388 -0.34357500076 -0.44039419293
          -0.784044981 -0.32476216555 -0.52896404266 -0.73058146238 -0.30261683464 -0.61210602522
          -0.66962116957 -0.27736625075 -0.68896698952 -0.6017896533 -0.24926950037 -0.75875818729
          -0.52778291702 -0.21861490607 -0.82076346874 -0.44836047292 -0.18571704626 -0.87434667349
          -0.36433723569 -0.15091346204 -0.91895782948 -0.27657538652 -0.11456130445 -0.95413929224
          -0.1859755069 -0.077033594251 -0.97952997684 -0.093467257917 -0.038715418428 -0.99486935139
          -0.084118381143 -0.056206118315 0.99486935139 -0.16737359762 -0.11183548719 0.97952991724
          -0.24891133606 -0.16631726921 0.95413923264 -0.32789489627 -0.21909241378 0.91895782948
          -0.40351381898 -0.26961937547 0.87434661388 -0.47499212623 -0.31737968326 0.82076340914
          -0.54159641266 -0.36188322306 0.75875812769 -0.60264313221 -0.40267336369 0.68896692991
          -0.65750598907 -0.43933153152 0.61210596561 -0.70562189817 -0.47148156166 0.52896398306
          -0.74649715424 -0.49879357219 0.44039413333 -0.77971237898 -0.52098727226 0.34730520844
          -0.80492663383 -0.53783494234 0.25065249205 -0.82188129425 -0.54916363955 0.15142774582
          -0.83040237427 -0.55485725403 0.050649125129 -0.83040237427 -0.55485725403 -0.050649214536
          -0.82188129425 -0.54916363955 -0.15142782032 -0.80492663383 -0.53783488274 -0.25065258145
          -0.77971231937 -0.52098721266 -0.34730529785 -0.74649709463 -0.49879354239 -0.44039419293
          -0.70562183857 -0.47148153186 -0.52896404266 -0.65750592947 -0.43933150172 -0.61210602522
          -0.60264307261 -0.40267333388 -0.68896698952 -0.54159635305 -0.36188319325 -0.75875818729
          -0.47499206662 -0.31737962365 -0.82076346874 -0.40351375937 -0.26961931586 -0.87434667349
          -0.32789483666 -0.21909236908 -0.91895782948 -0.24891126156 -0.1663172245 -0.95413929224
          -0.16737352312 -0.11183543503 -0.97952997684 -0.084118306637 -0.056206069887 -0.99486935139
          -0.071536801755 -0.071536816657 0.99486935139 -0.14233954251 -0.14233957231 0.97952991724
          -0.21168167889 -0.21168172359 0.95413923264 -0.27885168791 -0.27885174751 0.91895782948
          -0.34316027164 -0.34316036105 0.87434661388 -0.40394759178 -0.40394768119 0.82076340914
          -0.46058985591 -0.46058997512 0.75875812769 -0.51250582933 -0.51250594854 0.68896692991
          -0.55916285515 -0.55916297436 0.61210596561 -0.60008203983 -0.60008215904 0.52896398306
          -0.63484364748 -0.63484376669 0.44039413333 -0.66309082508 -0.66309094429 0.34730520844
          -0.68453383446 -0.68453395367 0.25065249205 -0.69895255566 -0.69895273447 0.15142774582
          -0.70619910955 -0.70619928837 0.050649125129 -0.70619910955 -0.70619928837 -0.050649214536